Title: * gnetlist -g spice-sdb -o include_mode -o nomunge_mode -o opsim-ss.net opsim-ss.sch
Date: Sun Apr  6 20:17:34  2014
Plotname: AC Analysis
Flags: complex
No. Variables: 34
No. Points: 61
Variables:
	0	frequency	frequency grid=3
	1	i(e.x1.egain)	current
	2	i(e.x1.egnd)	current
	3	i(e.x1.eout)	current
	4	i(egnd)	current
	5	fb1	voltage
	6	fb2	voltage
	7	i	voltage
	8	o1	voltage
	9	o2	voltage
	10	i(v.x2.vc)	current
	11	i(v.x2.ve)	current
	12	vcc	voltage
	13	i(vcc)	current
	14	vdd	voltage
	15	i(vin)	current
	16	x1.g1	voltage
	17	x1.g2	voltage
	18	x1.o1	voltage
	19	x1.vdd	voltage
	20	x2.1	voltage
	21	x2.8	voltage
	22	x2.10	voltage
	23	x2.11	voltage
	24	x2.12	voltage
	25	x2.13	voltage
	26	x2.14	voltage
	27	x2.17	voltage
	28	x2.80	voltage
	29	x2.90	voltage
	30	x2.102	voltage
	31	x2.103	voltage
	32	x2.104	voltage
	33	x2.105	voltage
Values:
 0	1.000000000000000e+02,0.000000000000000e+00
	7.371880883511039e-11,-4.152392446001291e-05
	-9.999792451319176e-04,-4.966082084706006e-08
	-9.999792451319176e-04,-4.966082084706006e-08
	1.999974607440035e-03,-3.352657823830583e-07
	9.999792504306613e-01,-3.745248602066200e-11
	9.999953570093739e-01,-3.352657449305723e-04
	1.000000000000000e+00,0.000000000000000e+00
	1.999958490488083e+00,-7.492369331137309e-11
	1.999990720932847e+00,-6.705374422952716e-04
	-7.588273809186560e-09,2.544122659266577e-12
	7.559270539595368e-09,-2.534398725047118e-12
	0.000000000000000e+00,0.000000000000000e+00
	-2.990050570127668e-08,2.384061156834272e-08
	0.000000000000000e+00,0.000000000000000e+00
	-1.543068288035947e-11,-4.178485103265360e-12
	2.074956933872940e+00,3.745248602066200e-06
	2.074956933872977e+00,3.724486639836193e-06
	2.074956933872977e+00,3.724486639836193e-06
	0.000000000000000e+00,0.000000000000000e+00
	2.025740991603143e+00,-6.791708192743382e-04
	-4.648049698149659e-05,1.555402368232248e-08
	9.998690886653997e-01,-2.081941894917081e-04
	9.998701212749155e-01,-1.337922026451559e-04
	9.998330767688580e-01,-1.719530725817085e-04
	0.000000000000000e+00,0.000000000000000e+00
	0.000000000000000e+00,0.000000000000000e+00
	1.999478323310345e+00,-6.703656506026229e-04
	-1.633871402526046e-04,1.644461789136792e-04
	-1.681110825170983e-04,-1.731756509180359e-04
	9.999953535523239e-01,-3.352627687135086e-04
	9.999999974720509e-01,-2.089233188511175e-09
	9.999976755121873e-01,-1.676324289733485e-04
	9.999976755121874e-01,-1.676324289733486e-04

 1	1.122018454301963e+02,0.000000000000000e+00
	9.325873406851315e-11,-4.659060953917610e-05
	-9.999792451319265e-04,-5.572035744617270e-08
	-9.999792451319265e-04,-5.572035744617270e-08
	1.999974583602032e-03,-3.761743879435281e-07
	9.999792504306613e-01,-4.202238047453375e-11
	9.999953331713708e-01,-3.761743459211476e-04
	1.000000000000000e+00,0.000000000000000e+00
	1.999958490488092e+00,-8.406577916473754e-11
	1.999990673256413e+00,-7.523553705831087e-04
	-7.588273628294802e-09,2.854552520690591e-12
	7.559270359395001e-09,-2.843642087250567e-12
	0.000000000000000e+00,0.000000000000000e+00
	-2.990054973261448e-08,2.674960615496525e-08
	0.000000000000000e+00,0.000000000000000e+00
	-1.543097708941864e-11,-4.688337310584477e-12
	2.074956933872940e+00,4.202238047453375e-06
	2.074956933872987e+00,4.178942742683787e-06
	2.074956933872987e+00,4.178942742683787e-06
	0.000000000000000e+00,0.000000000000000e+00
	2.025740943312861e+00,-7.620421786966653e-04
	-4.648049587604071e-05,1.745190128627605e-08
	9.998690739524118e-01,-2.335977183743442e-04
	9.998701118520423e-01,-1.501173176461648e-04
	9.998330646583465e-01,-1.929345171590010e-04
	0.000000000000000e+00,0.000000000000000e+00
	0.000000000000000e+00,0.000000000000000e+00
	1.999478275646126e+00,-7.521626171372408e-04
	-1.633726796305932e-04,1.845116430245756e-04
	-1.681259308668833e-04,-1.943062715914109e-04
	9.999953297145346e-01,-3.761710065507409e-04
	9.999999974719038e-01,-2.344158149697120e-09
	9.999976635932192e-01,-1.880866753544452e-04
	9.999976635932193e-01,-1.880866753544453e-04

 2	1.258925411794167e+02,0.000000000000000e+00
	1.181277298201167e-10,-5.227552370013176e-05
	-9.999792451319443e-04,-6.251926933493291e-08
	-9.999792451319443e-04,-6.251926933493291e-08
	1.999974553591766e-03,-4.220745954400460e-07
	9.999792504306613e-01,-4.714988638639399e-11
	9.999953031611045e-01,-4.220745482901596e-04
	1.000000000000000e+00,0.000000000000000e+00
	1.999958490488103e+00,-9.432333063503409e-11
	1.999990613235343e+00,-8.441565902505867e-04
	-7.588273400565589e-09,3.202860532104357e-12
	7.559270132536195e-09,-3.190618824726436e-12
	0.000000000000000e+00,0.000000000000000e+00
	-2.990060516497577e-08,3.001355177016473e-08
	0.000000000000000e+00,0.000000000000000e+00
	-1.543134768179142e-11,-5.260400860559030e-12
	2.074956933872940e+00,4.714988638639399e-06
	2.074956933872999e+00,4.688850876789333e-06
	2.074956933872999e+00,4.688850876789333e-06
	0.000000000000000e+00,0.000000000000000e+00
	2.025740882519001e+00,-8.550253674631610e-04
	-4.648049448435430e-05,1.958135484828117e-08
	9.998690554298577e-01,-2.621009448054541e-04
	9.998700999893477e-01,-1.684343968058893e-04
	9.998330494121159e-01,-2.164760837074686e-04
	0.000000000000000e+00,0.000000000000000e+00
	0.000000000000000e+00,0.000000000000000e+00
	1.999478215640433e+00,-8.439403173322492e-04
	-1.633544747878297e-04,2.070254622128623e-04
	-1.681446238316847e-04,-2.180152160506889e-04
	9.999952997045375e-01,-4.220708014550259e-04
	9.999999974717185e-01,-2.630188642807918e-09
	9.999976485881279e-01,-2.110367158218342e-04
	9.999976485881280e-01,-2.110367158218343e-04

 3	1.412537544622754e+02,0.000000000000000e+00
	1.483257960899209e-10,-5.865410229984767e-05
	-9.999792451319529e-04,-7.014777394323892e-08
	-9.999792451319529e-04,-7.014777394323892e-08
	1.999974515811081e-03,-4.735754712363686e-07
	9.999792504306613e-01,-5.290304264344072e-11
	9.999952653804195e-01,-4.735754183333260e-04
	1.000000000000000e+00,0.000000000000000e+00
	1.999958490488118e+00,-1.058325487709443e-10
	1.999990537673296e+00,-9.471592447027329e-04
	-7.588273113871505e-09,3.593668517799086e-12
	7.559269846937889e-09,-3.579933096613187e-12
	0.000000000000000e+00,0.000000000000000e+00
	-2.990067495019986e-08,3.367575899208826e-08
	0.000000000000000e+00,0.000000000000000e+00
	-1.543181397554647e-11,-5.902266670371857e-12
	2.074956933872940e+00,5.290304264344072e-06
	2.074956933873014e+00,5.260977213194148e-06
	2.074956933873014e+00,5.260977213194148e-06
	0.000000000000000e+00,0.000000000000000e+00
	2.025740805984068e+00,-9.593542129519866e-04
	-4.648049273232498e-05,2.197064085366240e-08
	9.998690321113443e-01,-2.940820883545536e-04
	9.998700850551004e-01,-1.889864960417039e-04
	9.998330302182490e-01,-2.428901537484214e-04
	0.000000000000000e+00,0.000000000000000e+00
	0.000000000000000e+00,0.000000000000000e+00
	1.999478140097745e+00,-9.469165825043351e-04
	-1.633315562498740e-04,2.322863802223080e-04
	-1.681681568790179e-04,-2.446170866004150e-04
	9.999952619241911e-01,-4.735712143152856e-04
	9.999999974714854e-01,-2.951120109425267e-09
	9.999976296978381e-01,-2.367870827176974e-04
	9.999976296978382e-01,-2.367870827176975e-04

 4	1.584893192461113e+02,0.000000000000000e+00
	1.874056465567264e-10,-6.581098520094396e-05
	-9.999792451319738e-04,-7.870709689255301e-08
	-9.999792451319738e-04,-7.870709689255301e-08
	1.999974468248019e-03,-5.313603985420318e-07
	9.999792504306613e-01,-5.935819013504994e-11
	9.999952178173579e-01,-5.313603391838416e-04
	1.000000000000000e+00,0.000000000000000e+00
	1.999958490488136e+00,-1.187460369531995e-10
	1.999990442546320e+00,-1.062730112338978e-03
	-7.588272752945061e-09,4.032162246200003e-12
	7.559269487390948e-09,-4.016750850722894e-12
	0.000000000000000e+00,0.000000000000000e+00
	-2.990076280453187e-08,3.778482308962703e-08
	0.000000000000000e+00,0.000000000000000e+00
	-1.543240128341638e-11,-6.622451883127834e-12
	2.074956933872940e+00,5.935819013504995e-06
	2.074956933873034e+00,5.902913520904523e-06
	2.074956933873034e+00,5.902913520904523e-06
	0.000000000000000e+00,0.000000000000000e+00
	2.025740709632303e+00,-1.076413091257234e-03
	-4.648049052665087e-05,2.465146357766431e-08
	9.998690027550775e-01,-3.299655180555532e-04
	9.998700662539985e-01,-2.120463283843156e-04
	9.998330060546045e-01,-2.725272248642000e-04
	0.000000000000000e+00,0.000000000000000e+00
	0.000000000000000e+00,0.000000000000000e+00
	1.999478044995140e+00,-1.062457840884303e-03
	-1.633027035217636e-04,2.606295927336783e-04
	-1.681977832280696e-04,-2.744648725108940e-04
	9.999952143615560e-01,-5.313556221981945e-04
	9.999999974711917e-01,-3.311211102016383e-09
	9.999976059163738e-01,-2.656794667046481e-04
	9.999976059163739e-01,-2.656794667046482e-04

 5	1.778279410038922e+02,0.000000000000000e+00
	2.353672812205332e-10,-7.384113989086042e-05
	-9.999792451216680e-04,-8.831081519754291e-08
	-9.999792451216680e-04,-8.831081519754291e-08
	1.999974408369677e-03,-5.961961452366535e-07
	9.999792504306614e-01,-6.660098474536951e-11
	9.999951579390157e-01,-5.961960786356687e-04
	1.000000000000000e+00,0.000000000000000e+00
	1.999958490477834e+00,-1.332352241971868e-10
	1.999990322788561e+00,-1.192402742360728e-03
	-7.588272298565621e-09,4.524160239922409e-12
	7.559269034748200e-09,-4.506868370597220e-12
	0.000000000000000e+00,0.000000000000000e+00
	-2.990087340667722e-08,4.239526885237361e-08
	0.000000000000000e+00,0.000000000000000e+00
	-1.543314047001121e-11,-7.430512882009496e-12
	2.074956933861841e+00,6.660098474536951e-06
	2.074956933861959e+00,6.623177904591521e-06
	2.074956933861959e+00,6.623177904591521e-06
	0.000000000000000e+00,0.000000000000000e+00
	2.025740588332626e+00,-1.207755296500635e-03
	-4.648048774987189e-05,2.765939577006580e-08
	9.998689657977299e-01,-3.702273833681264e-04
	9.998700425848153e-01,-2.379198826128531e-04
	9.998329756343802e-01,-3.057805614581585e-04
	0.000000000000000e+00,0.000000000000000e+00
	0.000000000000000e+00,0.000000000000000e+00
	1.999477925268064e+00,-1.192097248778255e-03
	-1.632663800927485e-04,2.924311950446823e-04
	-1.682350805889802e-04,-3.079546338039276e-04
	9.999951544837508e-01,-5.961907860909733e-04
	9.999999974708221e-01,-3.715239790758562e-09
	9.999975759772863e-01,-2.980972506653818e-04
	9.999975759772864e-01,-2.980972506653820e-04

 6	1.995262314968879e+02,0.000000000000000e+00
	2.966515921798418e-10,-8.285112164468156e-05
	-9.999792451320241e-04,-9.908636436647710e-08
	-9.999792451320241e-04,-9.908636436647710e-08
	1.999974332987319e-03,-6.689430380526659e-07
	9.999792504306613e-01,-7.472753395798537e-11
	9.999950825566570e-01,-6.689429633251319e-04
	1.000000000000000e+00,0.000000000000000e+00
	1.999958490488187e+00,-1.494925095858184e-10
	1.999990172022492e+00,-1.337897803315197e-03
	-7.588271726535862e-09,5.076190981290968e-12
	7.559268464904804e-09,-5.056789185938180e-12
	0.000000000000000e+00,0.000000000000000e+00
	-2.990101264644540e-08,4.756827410329013e-08
	0.000000000000000e+00,0.000000000000000e+00
	-1.543407105894706e-11,-8.337172093214023e-12
	2.074956933872940e+00,7.472753395798537e-06
	2.074956933873088e+00,7.431327834976196e-06
	2.074956933873088e+00,7.431327834976196e-06
	0.000000000000000e+00,0.000000000000000e+00
	2.025740435625397e+00,-1.355123651369181e-03
	-4.648048425411466e-05,3.103435066721019e-08
	9.998689192711909e-01,-4.154019321687375e-04
	9.998700127870822e-01,-2.669504833971974e-04
	9.998329373375913e-01,-3.430914129507562e-04
	0.000000000000000e+00,0.000000000000000e+00
	0.000000000000000e+00,0.000000000000000e+00
	1.999477774540621e+00,-1.337555033898122e-03
	-1.632206516093951e-04,3.281131723957070e-04
	-1.682820351792113e-04,-3.455307564921884e-04
	9.999950791020680e-01,-6.689370249926654e-04
	9.999999974703568e-01,-4.168567364723522e-09
	9.999975382862123e-01,-3.344705967800149e-04
	9.999975382862124e-01,-3.344705967800151e-04

 7	2.238721138568338e+02,0.000000000000000e+00
	3.739231146937527e-10,-9.296048744445357e-05
	-9.999792451217361e-04,-1.111767293884463e-07
	-9.999792451217361e-04,-1.111767293884463e-07
	1.999974238086563e-03,-7.505663780781869e-07
	9.999792504306614e-01,-8.384567214643631e-11
	9.999949876559013e-01,-7.505662942325148e-04
	1.000000000000000e+00,0.000000000000000e+00
	1.999958490477898e+00,-1.677332120653575e-10
	1.999989982219279e+00,-1.501145914301266e-03
	-7.588271006393145e-09,5.695579537462354e-12
	7.559267747514557e-09,-5.673810366639458e-12
	0.000000000000000e+00,0.000000000000000e+00
	-2.990118793895648e-08,5.337248148965543e-08
	0.000000000000000e+00,0.000000000000000e+00
	-1.543524256628772e-11,-9.354460259731970e-12
	2.074956933861841e+00,8.384567214643632e-06
	2.074956933862028e+00,8.338086970921405e-06
	2.074956933862028e+00,8.338086970921405e-06
	0.000000000000000e+00,0.000000000000000e+00
	2.025740243378409e+00,-1.520473632279826e-03
	-4.648047985321757e-05,3.482111159274618e-08
	9.998688606977554e-01,-4.660885995803619e-04
	9.998699752739630e-01,-2.995233468059643e-04
	9.998328891247960e-01,-3.849548686319275e-04
	0.000000000000000e+00,0.000000000000000e+00
	0.000000000000000e+00,0.000000000000000e+00
	1.999477584786035e+00,-1.500761320718172e-03
	-1.631630828674132e-04,3.681489991321783e-04
	-1.683411474985525e-04,-3.876918489775763e-04
	9.999949842021630e-01,-7.505596313143967e-04
	9.999999974697711e-01,-4.677209168447948e-09
	9.999974908359670e-01,-3.752821542617824e-04
	9.999974908359670e-01,-3.752821542617826e-04

 8	2.511886431509579e+02,0.000000000000000e+00
	4.698463840213662e-10,-1.043033824335866e-04
	-9.999792451217864e-04,-1.247423420627980e-07
	-9.999792451217864e-04,-1.247423420627980e-07
	1.999974118613609e-03,-8.421492489953537e-07
	9.999792504306614e-01,-9.407639146190318e-11
	9.999948681829476e-01,-8.421491549189623e-04
	1.000000000000000e+00,0.000000000000000e+00
	1.999958490477942e+00,-1.881997363245389e-10
	1.999989743271230e+00,-1.684313261670696e-03
	-7.588270099787325e-09,6.390544754147624e-12
	7.559266844373891e-09,-6.366119345022991e-12
	0.000000000000000e+00,0.000000000000000e+00
	-2.990140861908874e-08,5.988490933408115e-08
	0.000000000000000e+00,0.000000000000000e+00
	-1.543671760852031e-11,-1.049587607309501e-11
	2.074956933861841e+00,9.407639146190317e-06
	2.074956933862076e+00,9.355487454973524e-06
	2.074956933862076e+00,9.355487454973524e-06
	0.000000000000000e+00,0.000000000000000e+00
	2.025740001353829e+00,-1.705999315903654e-03
	-4.648047431281727e-05,3.906992617171002e-08
	9.998687869581806e-01,-5.229599616674094e-04
	9.998699280477515e-01,-3.360706916046488e-04
	9.998328284284922e-01,-4.319264268288167e-04
	0.000000000000000e+00,0.000000000000000e+00
	0.000000000000000e+00,0.000000000000000e+00
	1.999477345899204e+00,-1.683881740613225e-03
	-1.630906081271918e-04,4.130699209618257e-04
	-1.684155654869682e-04,-4.349973578099320e-04
	9.999948647302803e-01,-8.421416790025765e-04
	9.999999974690336e-01,-5.247914517449641e-09
	9.999974310996569e-01,-4.210734634585468e-04
	9.999974310996569e-01,-4.210734634585470e-04

 9	2.818382931264452e+02,0.000000000000000e+00
	5.915268275202834e-10,-1.170303199384806e-04
	-9.999792451528251e-04,-1.399632098292833e-07
	-9.999792451528251e-04,-1.399632098292833e-07
	1.999973968206100e-03,-9.449068879248275e-07
	9.999792504306610e-01,-1.055554473339212e-10
	9.999947177754394e-01,-9.449067823693801e-04
	1.000000000000000e+00,0.000000000000000e+00
	1.999958490508978e+00,-2.111637733639247e-10
	1.999989442453516e+00,-1.889830340969071e-03
	-7.588268958438439e-09,7.170308306976997e-12
	7.559265707387375e-09,-7.142902550396699e-12
	0.000000000000000e+00,0.000000000000000e+00
	-2.990168643883484e-08,6.719197362113051e-08
	0.000000000000000e+00,0.000000000000000e+00
	-1.543857434582179e-11,-1.177656528023642e-11
	2.074956933895145e+00,1.055554473339212e-05
	2.074956933895440e+00,1.049702957342288e-05
	2.074956933895440e+00,1.049702957342288e-05
	0.000000000000000e+00,0.000000000000000e+00
	2.025739696662994e+00,-1.914162491168193e-03
	-4.648046733786790e-05,4.383717303878223e-08
	9.998686941255744e-01,-5.867706594829365e-04
	9.998698685934857e-01,-3.770774741334078e-04
	9.998327520163882e-01,-4.846293655136020e-04
	0.000000000000000e+00,0.000000000000000e+00
	0.000000000000000e+00,0.000000000000000e+00
	1.999477045158560e+00,-1.889346166435905e-03
	-1.629993678543013e-04,4.634720036132063e-04
	-1.685092521636844e-04,-4.880749905363566e-04
	9.999947143241207e-01,-9.448983942542246e-04
	9.999999974681052e-01,-5.888256251256376e-09
	9.999973558961128e-01,-4.724521412552377e-04
	9.999973558961129e-01,-4.724521412552380e-04

 10	3.162277660168377e+02,0.000000000000000e+00
	7.451816941284051e-10,-1.313101786824411e-04
	-9.999792451322461e-04,-1.570413043502566e-07
	-9.999792451322461e-04,-1.570413043502566e-07
	1.999973778854313e-03,-1.060202809446220e-06
	9.999792504306613e-01,-1.184351598603903e-10
	9.999945284236519e-01,-1.060202691011060e-03
	1.000000000000000e+00,0.000000000000000e+00
	1.999958490488394e+00,-2.369295714310723e-10
	1.999989063746546e+00,-2.120424205259320e-03
	-7.588267521565683e-09,8.045217056621926e-12
	7.559264276006515e-09,-8.014467296520971e-12
	0.000000000000000e+00,0.000000000000000e+00
	-2.990203619308805e-08,7.539063468394923e-08
	0.000000000000000e+00,0.000000000000000e+00
	-1.544091203118358e-11,-1.321352164058846e-11
	2.074956933872940e+00,1.184351598603903e-05
	2.074956933873313e+00,1.177786089669781e-05
	2.074956933873313e+00,1.177786089669781e-05
	0.000000000000000e+00,0.000000000000000e+00
	2.025739313080054e+00,-2.147725322788085e-03
	-4.648045855692905e-05,4.918610988184667e-08
	9.998685772562764e-01,-6.583674118091111e-04
	9.998697937450182e-01,-4.230878228143177e-04
	9.998326558192726e-01,-5.437630120925542e-04
	0.000000000000000e+00,0.000000000000000e+00
	0.000000000000000e+00,0.000000000000000e+00
	1.999476666548615e+00,-2.119880952578146e-03
	-1.628845031862777e-04,5.200240413486872e-04
	-1.686271966709022e-04,-5.476290440575402e-04
	9.999945249740309e-01,-1.060193279392460e-03
	9.999999974669364e-01,-6.606731211504267e-09
	9.999972612204835e-01,-5.300999430618356e-04
	9.999972612204836e-01,-5.300999430618359e-04

 11	3.548133892335752e+02,0.000000000000000e+00
	9.379164112033322e-10,-1.473324437209694e-04
	-9.999792451529969e-04,-1.762032415704221e-07
	-9.999792451529969e-04,-1.762032415704221e-07
	1.999973540474611e-03,-1.189566896577150e-06
	9.999792504306610e-01,-1.328864350024591e-10
	9.999942900439498e-01,-1.189566763690715e-03
	1.000000000000000e+00,0.000000000000000e+00
	1.999958490509139e+00,-2.658393962307575e-10
	1.999988586982867e+00,-2.379154647396979e-03
	-7.588265712650623e-09,9.026880329937871e-12
	7.559262474005339e-09,-8.992378538046855e-12
	0.000000000000000e+00,0.000000000000000e+00
	-2.990247650756322e-08,8.458968382284429e-08
	0.000000000000000e+00,0.000000000000000e+00
	-1.544385501052464e-11,-1.482581239785531e-11
	2.074956933895145e+00,1.328864350024591e-05
	2.074956933895614e+00,1.321497727838542e-05
	2.074956933895614e+00,1.321497727838542e-05
	0.000000000000000e+00,0.000000000000000e+00
	2.025738830177895e+00,-2.409786999398331e-03
	-4.648044750238550e-05,5.518771273890220e-08
	9.998684301265933e-01,-7.387002493469407e-04
	9.998696995164096e-01,-4.747122576015843e-04
	9.998325347143171e-01,-6.101120220233355e-04
	0.000000000000000e+00,0.000000000000000e+00
	0.000000000000000e+00,0.000000000000000e+00
	1.999476189907083e+00,-2.378545107976555e-03
	-1.627398971856225e-04,5.834764301625520e-04
	-1.687756799590165e-04,-6.144497488898985e-04
	9.999942865964659e-01,-1.189556203682940e-03
	9.999999974654649e-01,-7.412872977318902e-09
	9.999971420309653e-01,-5.947818082779584e-04
	9.999971420309655e-01,-5.947818082779587e-04

 12	3.981071705534969e+02,0.000000000000000e+00
	1.182165476620867e-09,-1.653097207714493e-04
	-9.999792451427859e-04,-1.977032887488998e-07
	-9.999792451427859e-04,-1.977032887488998e-07
	1.999973240372464e-03,-1.334715698522532e-06
	9.999792504306612e-01,-1.491010323991423e-10
	9.999939899418027e-01,-1.334715549421499e-03
	1.000000000000000e+00,0.000000000000000e+00
	1.999958490498921e+00,-2.982766389779091e-10
	1.999987986773192e+00,-2.669454795884609e-03
	-7.588263435362378e-09,1.012832394690834e-11
	7.559260205421155e-09,-1.008961230875112e-11
	0.000000000000000e+00,0.000000000000000e+00
	-2.990303083028172e-08,9.491118689262514e-08
	0.000000000000000e+00,0.000000000000000e+00
	-1.544755982463923e-11,-1.663483125531183e-11
	2.074956933884039e+00,1.491010323991423e-05
	2.074956933884630e+00,1.482744837952851e-05
	2.074956933884630e+00,1.482744837952851e-05
	0.000000000000000e+00,0.000000000000000e+00
	2.025738222240334e+00,-2.703824852092893e-03
	-4.648043358554515e-05,6.192161767394105e-08
	9.998682449013695e-01,-8.288351192750441e-04
	9.998695808896667e-01,-5.326357900756328e-04
	9.998323822522714e-01,-6.845567892577557e-04
	0.000000000000000e+00,0.000000000000000e+00
	0.000000000000000e+00,0.000000000000000e+00
	1.999475589851181e+00,-2.668770881566171e-03
	-1.625578490924801e-04,6.546711232501019e-04
	-1.689626092646638e-04,-6.894237531659761e-04
	9.999939864970095e-01,-1.334703700900694e-03
	9.999999974636125e-01,-8.317378352397818e-09
	9.999969919803109e-01,-6.673560091395230e-04
	9.999969919803110e-01,-6.673560091395235e-04

 13	4.466835921509627e+02,0.000000000000000e+00
	1.487698852997710e-09,-1.854805573800957e-04
	-9.999792451326074e-04,-2.218267384513154e-07
	-9.999792451326074e-04,-2.218267384513154e-07
	1.999972862566432e-03,-1.497575204187275e-06
	9.999792504306613e-01,-1.672941099063475e-10
	9.999936121357710e-01,-1.497575036893165e-03
	1.000000000000000e+00,0.000000000000000e+00
	1.999958490488738e+00,-3.346719039503682e-10
	1.999987231154353e+00,-2.995176662296429e-03
	-7.588260568427754e-09,1.136416303461137e-11
	7.559257349444292e-09,-1.132072787498757e-11
	0.000000000000000e+00,0.000000000000000e+00
	-2.990372868078778e-08,1.064921040606524e-07
	0.000000000000000e+00,0.000000000000000e+00
	-1.545222387159109e-11,-1.866458220718722e-11
	2.074956933872940e+00,1.672941099063475e-05
	2.074956933873684e+00,1.663667071194470e-05
	2.074956933873684e+00,1.663667071194470e-05
	0.000000000000000e+00,0.000000000000000e+00
	2.025737456892668e+00,-3.033740488286504e-03
	-4.648041606528982e-05,6.947717731123446e-08
	9.998680117167440e-01,-9.299680272188869e-04
	9.998694315475198e-01,-5.976270115276897e-04
	9.998321903140229e-01,-7.680851264745288e-04
	0.000000000000000e+00,0.000000000000000e+00
	0.000000000000000e+00,0.000000000000000e+00
	1.999474834425932e+00,-2.994409298035849e-03
	-1.623286642426682e-04,7.345528006303272e-04
	-1.691979391929667e-04,-7.735458852631214e-04
	9.999936086943650e-01,-1.497561742638115e-03
	9.999999974612804e-01,-9.332249280066134e-09
	9.999968030778227e-01,-7.487855374436973e-04
	9.999968030778228e-01,-7.487855374436976e-04

 14	5.011872336272718e+02,0.000000000000000e+00
	1.872280108727864e-09,-2.081126082958184e-04
	-9.999792451431174e-04,-2.488936942012874e-07
	-9.999792451431174e-04,-2.488936942012874e-07
	1.999972386937115e-03,-1.680306393154807e-06
	9.999792504306612e-01,-1.877070786118174e-10
	9.999931365064534e-01,-1.680306205447729e-03
	1.000000000000000e+00,0.000000000000000e+00
	1.999958490499241e+00,-3.755080627263460e-10
	1.999986279887189e+00,-3.360642243683304e-03
	-7.588256959173157e-09,1.275079591763977e-11
	7.559253753984687e-09,-1.270206088503540e-11
	0.000000000000000e+00,0.000000000000000e+00
	-2.990460722211703e-08,1.194861071919664e-07
	0.000000000000000e+00,0.000000000000000e+00
	-1.545809584110057e-11,-2.094199798637152e-11
	2.074956933884039e+00,1.877070786118174e-05
	2.074956933884975e+00,1.866665155703383e-05
	2.074956933884975e+00,1.866665155703383e-05
	0.000000000000000e+00,0.000000000000000e+00
	2.025736493377644e+00,-3.403911552078932e-03
	-4.648039400860895e-05,7.795464622495437e-08
	9.998677181548760e-01,-1.043440903984337e-03
	9.998692435370129e-01,-6.705482894350906e-04
	9.998319486782347e-01,-8.618053698434067e-04
	0.000000000000000e+00,0.000000000000000e+00
	0.000000000000000e+00,0.000000000000000e+00
	1.999473883402483e+00,-3.359781247140810e-03
	-1.620401378038190e-04,8.241814008248395e-04
	-1.694942018237123e-04,-8.679323508236831e-04
	9.999931330693119e-01,-1.680291289053805e-03
	9.999999974583444e-01,-1.047095206641611e-08
	9.999965652638281e-01,-8.401508800029354e-04
	9.999965652638282e-01,-8.401508800029359e-04

 15	5.623413251903485e+02,0.000000000000000e+00
	2.356337347464432e-09,-2.335061870796068e-04
	-9.999792451330278e-04,-2.792633180518326e-07
	-9.999792451330278e-04,-2.792633180518326e-07
	1.999971788155750e-03,-1.885333902487775e-06
	9.999792504306613e-01,-2.106108062046001e-10
	9.999925377250887e-01,-1.885333691876969e-03
	1.000000000000000e+00,0.000000000000000e+00
	1.999958490489141e+00,-4.213269672414546e-10
	1.999985082313724e+00,-3.770700856676687e-03
	-7.588252415394395e-09,1.430662165255003e-11
	7.559249227572777e-09,-1.425194007210604e-11
	0.000000000000000e+00,0.000000000000000e+00
	-2.990571323914538e-08,1.340656189933421e-07
	0.000000000000000e+00,0.000000000000000e+00
	-1.546548792812445e-11,-2.349729734553383e-11
	2.074956933872940e+00,2.106108062046001e-05
	2.074956933874118e+00,2.094432752692021e-05
	2.074956933874118e+00,2.094432752692021e-05
	0.000000000000000e+00,0.000000000000000e+00
	2.025735280385048e+00,-3.819249796553243e-03
	-4.648036624091470e-05,8.746651088155442e-08
	9.998673485826708e-01,-1.170759407171646e-03
	9.998690068459941e-01,-7.523672073555699e-04
	9.998316444770396e-01,-9.669610818623718e-04
	0.000000000000000e+00,0.000000000000000e+00
	0.000000000000000e+00,0.000000000000000e+00
	1.999472686135836e+00,-3.769734803117584e-03
	-1.616769048416729e-04,9.247461804409628e-04
	-1.698671740658255e-04,-9.738355388316239e-04
	9.999925342933156e-01,-1.885316955415596e-03
	9.999999974546484e-01,-1.174859602006536e-08
	9.999962658739819e-01,-9.426643520058073e-04
	9.999962658739820e-01,-9.426643520058078e-04

 16	6.309573444801925e+02,0.000000000000000e+00
	2.967404100218118e-09,-2.619982510942298e-04
	-9.999792451126737e-04,-3.133385964606411e-07
	-9.999792451126737e-04,-3.133385964606411e-07
	1.999971034335419e-03,-2.115378188767801e-06
	9.999792504306615e-01,-2.363092112354070e-10
	9.999917839047571e-01,-2.115377952458590e-03
	1.000000000000000e+00,0.000000000000000e+00
	1.999958490468769e+00,-4.727365544951785e-10
	1.999983574659544e+00,-4.230793462131960e-03
	-7.588246695121490e-09,1.605228408549783e-11
	7.559243529163425e-09,-1.599093037916182e-11
	0.000000000000000e+00,0.000000000000000e+00
	-2.990710563072166e-08,1.504241009863022e-07
	0.000000000000000e+00,0.000000000000000e+00
	-1.547479403940561e-11,-2.636438590052089e-11
	2.074956933850736e+00,2.363092112354071e-05
	2.074956933852219e+00,2.349992199799359e-05
	2.074956933852219e+00,2.349992199799359e-05
	0.000000000000000e+00,0.000000000000000e+00
	2.025733753319353e+00,-4.285266236618822e-03
	-4.648033128349329e-05,9.813898173726894e-08
	9.998668833192896e-01,-1.313612893284936e-03
	9.998687088699501e-01,-8.441693996556528e-04
	9.998312615108031e-01,-1.084947546870373e-03
	0.000000000000000e+00,0.000000000000000e+00
	0.000000000000000e+00,0.000000000000000e+00
	1.999471178867916e+00,-4.229709532847387e-03
	-1.612196221176434e-04,1.037581487599792e-03
	-1.703367178048645e-04,-1.092660632575353e-03
	9.999917804797426e-01,-2.115359173851200e-03
	9.999999974499953e-01,-1.318213387295764e-08
	9.999958889648689e-01,-1.057686177992536e-03
	9.999958889648690e-01,-1.057686177992536e-03

 17	7.079457843841370e+02,0.000000000000000e+00
	3.735678433258727e-09,-2.939668727257685e-04
	-9.999792451337057e-04,-3.515716876776666e-07
	-9.999792451337057e-04,-3.515716876776666e-07
	1.999970085333027e-03,-2.373491610769056e-06
	9.999792504306613e-01,-2.651432959310750e-10
	9.999908349023658e-01,-2.373491345625760e-03
	1.000000000000000e+00,0.000000000000000e+00
	1.999958490489780e+00,-5.304190803771812e-10
	1.999981676637744e+00,-4.747024831108151e-03
	-7.588239493733525e-09,1.801094566111525e-11
	7.559236355300006e-09,-1.794210572126368e-11
	0.000000000000000e+00,0.000000000000000e+00
	-2.990885854538095e-08,1.687786206561531e-07
	0.000000000000000e+00,0.000000000000000e+00
	-1.548651000092632e-11,-2.958130583798680e-11
	2.074956933872940e+00,2.651432959310750e-05
	2.074956933874808e+00,2.636734615674462e-05
	2.074956933874808e+00,2.636734615674462e-05
	0.000000000000000e+00,0.000000000000000e+00
	2.025731830859933e+00,-4.808144244150395e-03
	-4.648028727476185e-05,1.101136672261561e-07
	9.998662975881253e-01,-1.473896824505363e-03
	9.998683337408037e-01,-9.471729508379390e-04
	9.998307793854769e-01,-1.217330277421544e-03
	0.000000000000000e+00,0.000000000000000e+00
	0.000000000000000e+00,0.000000000000000e+00
	1.999469281332390e+00,-4.745808643346897e-03
	-1.606439380390320e-04,1.164184457635378e-03
	-1.709278375650039e-04,-1.225984245013229e-03
	9.999908314858598e-01,-2.373470275697445e-03
	9.999999974441374e-01,-1.479058663316942e-08
	9.999954144649985e-01,-1.186742533142038e-03
	9.999954144649985e-01,-1.186742533142039e-03

 18	7.943282347242805e+02,0.000000000000000e+00
	4.702904732312163e-09,-3.298362561482892e-04
	-9.999792451135232e-04,-3.944699215805921e-07
	-9.999792451135232e-04,-3.944699215805921e-07
	1.999968890611672e-03,-2.663098909617202e-06
	9.999792504306615e-01,-2.974956710677138e-10
	9.999896401810100e-01,-2.663098612121531e-03
	1.000000000000000e+00,0.000000000000000e+00
	1.999958490469573e+00,-5.951398471701240e-10
	1.999979287173610e+00,-5.326244505895445e-03
	-7.588230427737408e-09,2.020859460115829e-11
	7.559227323955188e-09,-2.013135499014598e-11
	0.000000000000000e+00,0.000000000000000e+00
	-2.991106533064832e-08,1.893727318344101e-07
	0.000000000000000e+00,0.000000000000000e+00
	-1.550125909192818e-11,-3.319074043058995e-11
	2.074956933850736e+00,2.974956710677138e-05
	2.074956933853087e+00,2.958464897869723e-05
	2.074956933853087e+00,2.958464897869723e-05
	0.000000000000000e+00,0.000000000000000e+00
	2.025729410630706e+00,-5.394821551413825e-03
	-4.648023187113825e-05,1.235494517613675e-07